[{"formula_pretty": "Ni", "density": 2.8514826991109192, "material_id": "mp-1014111", "formation_energy_per_atom": 0.6202391299999991, "band_gap": 0.0}, {"formula_pretty": "Ni", "density": 8.369294959089133, "material_id": "mp-1246134", "formation_energy_per_atom": 0.409910799999999, "band_gap": 0.0}, {"formula_pretty": "Ni", "density": 2.738737845096086, "material_id": "mp-1094136", "formation_energy_per_atom": 0.7398515400000001, "band_gap": 0.0}, {"formula_pretty": "Ni", "density": 9.221740491591103, "material_id": "mp-10257", "formation_energy_per_atom": 0.04583529000000101, "band_gap": 0.0}, {"formula_pretty": "Ni", "density": 9.289219853118466, "material_id": "mp-23", "formation_energy_per_atom": 0.0, "band_gap": 0.0}, {"formula_pretty": "Ni", "density": 9.196826321120955, "material_id": "mp-1008728", "formation_energy_per_atom": 0.11925923000000001, "band_gap": 0.0}, {"formula_pretty": "TiNi", "density": 6.625800858603042, "material_id": "mp-1048", "formation_energy_per_atom": -0.39585502666666605, "band_gap": 0.0}, {"formula_pretty": "TiNi", "density": 6.518078495566351, "material_id": "mp-1179013", "formation_energy_per_atom": -0.38580461666666604, "band_gap": 0.0}, {"formula_pretty": "TbNi", "density": 9.133206611422944, "material_id": "mp-31139", "formation_energy_per_atom": -0.43534600583333205, "band_gap": 0.0}, {"formula_pretty": "ZnNi", "density": 8.389324962053658, "material_id": "mp-1215522", "formation_energy_per_atom": -0.129228334999999, "band_gap": 0.0}, {"formula_pretty": "AlNi", "density": 5.712371063731962, "material_id": "mp-1228854", "formation_energy_per_atom": -0.438242119999999, "band_gap": 0.0}, {"formula_pretty": "NiS2", "density": 3.502689883856152, "material_id": "mp-1042115", "formation_energy_per_atom": -0.211133334999999, "band_gap": 0.0}, {"formula_pretty": "MgNi", "density": 5.047594076587626, "material_id": "mp-1018140", "formation_energy_per_atom": -0.136087397499999, "band_gap": 0.0}, {"formula_pretty": "NiHg", "density": 13.735784312124743, "material_id": "mp-1057320", "formation_energy_per_atom": 0.219228017499997, "band_gap": 0.0}, {"formula_pretty": "AlNi", "density": 6.060902167304869, "material_id": "mp-1228868", "formation_energy_per_atom": -0.6581211049999991, "band_gap": 0.0}, {"formula_pretty": "MnNi", "density": 7.6289179910550615, "material_id": "mp-1797", "formation_energy_per_atom": -0.32563896988505703, "band_gap": 0.0}, {"formula_pretty": "FeNi", "density": 8.535536782713221, "material_id": "mp-2213", "formation_energy_per_atom": -0.067223354999999, "band_gap": 0.0}, {"formula_pretty": "ZnNi", "density": 8.906568762336324, "material_id": "mp-429", "formation_energy_per_atom": -0.254970534999999, "band_gap": 0.0}, {"formula_pretty": "NiPt", "density": 16.036278150174454, "material_id": "mp-945", "formation_energy_per_atom": -0.095115924999998, "band_gap": 0.0}, {"formula_pretty": "TiNi", "density": 6.601175128775467, "material_id": "mp-998945", "formation_energy_per_atom": -0.32921405666666603, "band_gap": 0.0}, {"formula_pretty": "TiNi", "density": 6.662728363550433, "material_id": "mp-1067475", "formation_energy_per_atom": -0.324108791666666, "band_gap": 0.0}, {"formula_pretty": "NiSe", "density": 6.294033620599634, "material_id": "mp-571033", "formation_energy_per_atom": -0.23667956953124902, "band_gap": 0.0}, {"formula_pretty": "NiS2", "density": 3.869447963898158, "material_id": "mp-849092", "formation_energy_per_atom": -0.285924461666666, "band_gap": 0.0}, {"formula_pretty": "NiN", "density": 4.452742265475101, "material_id": "mp-1430841", "formation_energy_per_atom": 0.875643596666666, "band_gap": 0.0}, {"formula_pretty": "NiC4", "density": 1.8931660716798682, "material_id": "mp-1210339", "formation_energy_per_atom": 1.7218630235, "band_gap": 0.0}, {"formula_pretty": "NiF2", "density": 4.858200007945914, "material_id": "mp-559798", "formation_energy_per_atom": -2.23065729, "band_gap": 4.9116}, {"formula_pretty": "Fe3Ni", "density": 8.092877146430878, "material_id": "mp-1007862", "formation_energy_per_atom": 0.042764360000001, "band_gap": 0.0}, {"formula_pretty": "Cr3Ni", "density": 7.733362457789992, "material_id": "mp-1008284", "formation_energy_per_atom": 0.19039660125000002, "band_gap": 0.0}, {"formula_pretty": "NiS2", "density": 4.441552677698093, "material_id": "mp-1094089", "formation_energy_per_atom": -0.015561664999999001, "band_gap": 0.0}, {"formula_pretty": "In3Ni", "density": 7.949465455094601, "material_id": "mp-1184929", "formation_energy_per_atom": 0.19528176416666201, "band_gap": 0.0}, {"formula_pretty": "Li3Ni", "density": 2.401551211717096, "material_id": "mp-1185204", "formation_energy_per_atom": 0.093283324999999, "band_gap": 0.0}, {"formula_pretty": "Na3Ni", "density": 2.221891763940675, "material_id": "mp-1186066", "formation_energy_per_atom": 0.419549607586207, "band_gap": 0.0}, {"formula_pretty": "NiIr3", "density": 19.61110700237134, "material_id": "mp-1186350", "formation_energy_per_atom": 0.011985112499992, "band_gap": 0.0}, {"formula_pretty": "TiNi", "density": 6.60301693035981, "material_id": "mp-1190013", "formation_energy_per_atom": -0.36128377041666604, "band_gap": 0.0}, {"formula_pretty": "Be3Ni", "density": 4.243303365787677, "material_id": "mp-865168", "formation_energy_per_atom": -0.28368570124999903, "band_gap": 0.0}, {"formula_pretty": "Zn3Ni", "density": 8.365757074761854, "material_id": "mp-971941", "formation_energy_per_atom": -0.16911967499999903, "band_gap": 0.0}, {"formula_pretty": "NiAg3", "density": 9.831616730278608, "material_id": "mp-976762", "formation_energy_per_atom": 0.1849671575, "band_gap": 0.0}, {"formula_pretty": "NiGe3", "density": 7.069121669810204, "material_id": "mp-976774", "formation_energy_per_atom": 0.28039929812500103, "band_gap": 0.0}, {"formula_pretty": "Th3Ni", "density": 11.762936050655538, "material_id": "mp-978965", "formation_energy_per_atom": 0.18052051000000302, "band_gap": 0.0}, {"formula_pretty": "Nb3Ni", "density": 8.430940710273028, "material_id": "mp-999394", "formation_energy_per_atom": 0.101471164999999, "band_gap": 0.0}, {"formula_pretty": "Cs3Ni", "density": 3.027508073756545, "material_id": "mp-985605", "formation_energy_per_atom": 0.7009771015517251, "band_gap": 0.0}, {"formula_pretty": "NiS2", "density": 3.940790604191446, "material_id": "mp-1180046", "formation_energy_per_atom": -0.591526538333332, "band_gap": 0.24040000000000003}, {"formula_pretty": "NiP4", "density": 3.9424532623804573, "material_id": "mp-769108", "formation_energy_per_atom": -0.17240725228571302, "band_gap": 0.0}, {"formula_pretty": "NiS2", "density": 4.323290135292187, "material_id": "mp-850131", "formation_energy_per_atom": -0.569828999999999, "band_gap": 0.0}, {"formula_pretty": "Ga5Ni", "density": 7.159019774039257, "material_id": "mp-1095578", "formation_energy_per_atom": -0.15553331916666702, "band_gap": 0.0}, {"formula_pretty": "Mg2Ni", "density": 3.54458602368237, "material_id": "mp-1185791", "formation_energy_per_atom": -0.15112408111111, "band_gap": 0.0}, {"formula_pretty": "NiF4", "density": 2.955236798417384, "material_id": "mp-1406123", "formation_energy_per_atom": -1.3618308325, "band_gap": 0.8967}, {"formula_pretty": "Ta2Ni", "density": 15.036324253874438, "material_id": "mp-1867", "formation_energy_per_atom": -0.23848323988888803, "band_gap": 0.0}, {"formula_pretty": "Zr2Ni", "density": 7.299906304575116, "material_id": "mp-328", "formation_energy_per_atom": -0.32306496833333403, "band_gap": 0.0}, {"formula_pretty": "U6Ni", "density": 18.230911680670584, "material_id": "mp-636821", "formation_energy_per_atom": -0.018942877857136, "band_gap": 0.0}]